# vtk DataFile Version 2.0
cube internal fluence
ASCII

DATASET UNSTRUCTURED_GRID
POINTS 9261 double
  -5.000000  -5.000000  -5.000000
  -5.000000  -4.500000  -5.000000
  -5.000000  -4.000000  -5.000000
  -5.000000  -3.500000  -5.000000
  -5.000000  -3.000000  -5.000000
  -5.000000  -2.500000  -5.000000
  -5.000000  -2.000000  -5.000000
  -5.000000  -1.500000  -5.000000
  -5.000000  -1.000000  -5.000000
  -5.000000  -0.500000  -5.000000
  -5.000000  0.000000  -5.000000
  -5.000000  0.500000  -5.000000
  -5.000000  1.000000  -5.000000
  -5.000000  1.500000  -5.000000
  -5.000000  2.000000  -5.000000
  -5.000000  2.500000  -5.000000
  -5.000000  3.000000  -5.000000
  -5.000000  3.500000  -5.000000
  -5.000000  4.000000  -5.000000
  -5.000000  4.500000  -5.000000
  -5.000000  5.000000  -5.000000
  -4.500000  -5.000000  -5.000000
  -4.500000  -4.500000  -5.000000
  -4.500000  -4.000000  -5.000000
  -4.500000  -3.500000  -5.000000
  -4.500000  -3.000000  -5.000000
  -4.500000  -2.500000  -5.000000
  -4.500000  -2.000000  -5.000000
  -4.500000  -1.500000  -5.000000
  -4.500000  -1.000000  -5.000000
  -4.500000  -0.500000  -5.000000
  -4.500000  0.000000  -5.000000
  -4.500000  0.500000  -5.000000
  -4.500000  1.000000  -5.000000
  -4.500000  1.500000  -5.000000
  -4.500000  2.000000  -5.000000
  -4.500000  2.500000  -5.000000
  -4.500000  3.000000  -5.000000
  -4.500000  3.500000  -5.000000
  -4.500000  4.000000  -5.000000
  -4.500000  4.500000  -5.000000
  -4.500000  5.000000  -5.000000
  -4.000000  -5.000000  -5.000000
  -4.000000  -4.500000  -5.000000
  -4.000000  -4.000000  -5.000000
  -4.000000  -3.500000  -5.000000
  -4.000000  -3.000000  -5.000000
  -4.000000  -2.500000  -5.000000
  -4.000000  -2.000000  -5.000000
  -4.000000  -1.500000  -5.000000
  -4.000000  -1.000000  -5.000000
  -4.000000  -0.500000  -5.000000
  -4.000000  0.000000  -5.000000
  -4.000000  0.500000  -5.000000
  -4.000000  1.000000  -5.000000
  -4.000000  1.500000  -5.000000
  -4.000000  2.000000  -5.000000
  -4.000000  2.500000  -5.000000
  -4.000000  3.000000  -5.000000
  -4.000000  3.500000  -5.000000
  -4.000000  4.000000  -5.000000
  -4.000000  4.500000  -5.000000
  -4.000000  5.000000  -5.000000
  -3.500000  -5.000000  -5.000000
  -3.500000  -4.500000  -5.000000
  -3.500000  -4.000000  -5.000000
  -3.500000  -3.500000  -5.000000
  -3.500000  -3.000000  -5.000000
  -3.500000  -2.500000  -5.000000
  -3.500000  -2.000000  -5.000000
  -3.500000  -1.500000  -5.000000
  -3.500000  -1.000000  -5.000000
  -3.500000  -0.500000  -5.000000
  -3.500000  0.000000  -5.000000
  -3.500000  0.500000  -5.000000
  -3.500000  1.000000  -5.000000
  -3.500000  1.500000  -5.000000
  -3.500000  2.000000  -5.000000
  -3.500000  2.500000  -5.000000
  -3.500000  3.000000  -5.000000
  -3.500000  3.500000  -5.000000
  -3.500000  4.000000  -5.000000
  -3.500000  4.500000  -5.000000
  -3.500000  5.000000  -5.000000
  -3.000000  -5.000000  -5.000000
  -3.000000  -4.500000  -5.000000
  -3.000000  -4.000000  -5.000000
  -3.000000  -3.500000  -5.000000
  -3.000000  -3.000000  -5.000000
  -3.000000  -2.500000  -5.000000
  -3.000000  -2.000000  -5.000000
  -3.000000  -1.500000  -5.000000
  -3.000000  -1.000000  -5.000000
  -3.000000  -0.500000  -5.000000
  -3.000000  0.000000  -5.000000
  -3.000000  0.500000  -5.000000
  -3.000000  1.000000  -5.000000
  -3.000000  1.500000  -5.000000
  -3.000000  2.000000  -5.000000
  -3.000000  2.500000  -5.000000
  -3.000000  3.000000  -5.000000
  -3.000000  3.500000  -5.000000
  -3.000000  4.000000  -5.000000
  -3.000000  4.500000  -5.000000
  -3.000000  5.000000  -5.000000
  -2.500000  -5.000000  -5.000000
  -2.500000  -4.500000  -5.000000
  -2.500000  -4.000000  -5.000000
  -2.500000  -3.500000  -5.000000
  -2.500000  -3.000000  -5.000000
  -2.500000  -2.500000  -5.000000
  -2.500000  -2.000000  -5.000000
  -2.500000  -1.500000  -5.000000
  -2.500000  -1.000000  -5.000000
  -2.500000  -0.500000  -5.000000
  -2.500000  0.000000  -5.000000
  -2.500000  0.500000  -5.000000
  -2.500000  1.000000  -5.000000
  -2.500000  1.500000  -5.000000
  -2.500000  2.000000  -5.000000
  -2.500000  2.500000  -5.000000
  -2.500000  3.000000  -5.000000
  -2.500000  3.500000  -5.000000
  -2.500000  4.000000  -5.000000
  -2.500000  4.500000  -5.000000
  -2.500000  5.000000  -5.000000
  -2.000000  -5.000000  -5.000000
  -2.000000  -4.500000  -5.000000
  -2.000000  -4.000000  -5.000000
  -2.000000  -3.500000  -5.000000
  -2.000000  -3.000000  -5.000000
  -2.000000  -2.500000  -5.000000
  -2.000000  -2.000000  -5.000000
  -2.000000  -1.500000  -5.000000
  -2.000000  -1.000000  -5.000000
  -2.000000  -0.500000  -5.000000
  -2.000000  0.000000  -5.000000
  -2.000000  0.500000  -5.000000
  -2.000000  1.000000  -5.000000
  -2.000000  1.500000  -5.000000
  -2.000000  2.000000  -5.000000
  -2.000000  2.500000  -5.000000
  -2.000000  3.000000  -5.000000
  -2.000000  3.500000  -5.000000
  -2.000000  4.000000  -5.000000
  -2.000000  4.500000  -5.000000
  -2.000000  5.000000  -5.000000
  -1.500000  -5.000000  -5.000000
  -1.500000  -4.500000  -5.000000
  -1.500000  -4.000000  -5.000000
  -1.500000  -3.500000  -5.000000
  -1.500000  -3.000000  -5.000000
  -1.500000  -2.500000  -5.000000
  -1.500000  -2.000000  -5.000000
  -1.500000  -1.500000  -5.000000
  -1.500000  -1.000000  -5.000000
  -1.500000  -0.500000  -5.000000
  -1.500000  0.000000  -5.000000
  -1.500000  0.500000  -5.000000
  -1.500000  1.000000  -5.000000
  -1.500000  1.500000  -5.000000
  -1.500000  2.000000  -5.000000
  -1.500000  2.500000  -5.000000
  -1.500000  3.000000  -5.000000
  -1.500000  3.500000  -5.000000
  -1.500000  4.000000  -5.000000
  -1.500000  4.500000  -5.000000
  -1.500000  5.000000  -5.000000
  -1.000000  -5.000000  -5.000000
  -1.000000  -4.500000  -5.000000
  -1.000000  -4.000000  -5.000000
  -1.000000  -3.500000  -5.000000
  -1.000000  -3.000000  -5.000000
  -1.000000  -2.500000  -5.000000
  -1.000000  -2.000000  -5.000000
  -1.000000  -1.500000  -5.000000
  -1.000000  -1.000000  -5.000000
  -1.000000  -0.500000  -5.000000
  -1.000000  0.000000  -5.000000
  -1.000000  0.500000  -5.000000
  -1.000000  1.000000  -5.000000
  -1.000000  1.500000  -5.000000
  -1.000000  2.000000  -5.000000
  -1.000000  2.500000  -5.000000
  -1.000000  3.000000  -5.000000
  -1.000000  3.500000  -5.000000
  -1.000000  4.000000  -5.000000
  -1.000000  4.500000  -5.000000
  -1.000000  5.000000  -5.000000
  -0.500000  -5.000000  -5.000000
  -0.500000  -4.500000  -5.000000
  -0.500000  -4.000000  -5.000000
  -0.500000  -3.500000  -5.000000
  -0.500000  -3.000000  -5.000000
  -0.500000  -2.500000  -5.000000
  -0.500000  -2.000000  -5.000000
  -0.500000  -1.500000  -5.000000
  -0.500000  -1.000000  -5.000000
  -0.500000  -0.500000  -5.000000
  -0.500000  0.000000  -5.000000
  -0.500000  0.500000  -5.000000
  -0.500000  1.000000  -5.000000
  -0.500000  1.500000  -5.000000
  -0.500000  2.000000  -5.000000
  -0.500000  2.500000  -5.000000
  -0.500000  3.000000  -5.000000
  -0.500000  3.500000  -5.000000
  -0.500000  4.000000  -5.000000
  -0.500000  4.500000  -5.000000
  -0.500000  5.000000  -5.000000
  0.000000  -5.000000  -5.000000
  0.000000  -4.500000  -5.000000
  0.000000  -4.000000  -5.000000
  0.000000  -3.500000  -5.000000
  0.000000  -3.000000  -5.000000
  0.000000  -2.500000  -5.000000
  0.000000  -2.000000  -5.000000
  0.000000  -1.500000  -5.000000
  0.000000  -1.000000  -5.000000
  0.000000  -0.500000  -5.000000
  0.000000  0.000000  -5.000000
  0.000000  0.500000  -5.000000
  0.000000  1.000000  -5.000000
  0.000000  1.500000  -5.000000
  0.000000  2.000000  -5.000000
  0.000000  2.500000  -5.000000
  0.000000  3.000000  -5.000000
  0.000000  3.500000  -5.000000
  0.000000  4.000000  -5.000000
  0.000000  4.500000  -5.000000
  0.000000  5.000000  -5.000000
  0.500000  -5.000000  -5.000000
  0.500000  -4.500000  -5.000000
  0.500000  -4.000000  -5.000000
  0.500000  -3.500000  -5.000000
  0.500000  -3.000000  -5.000000
  0.500000  -2.500000  -5.000000
  0.500000  -2.000000  -5.000000
  0.500000  -1.500000  -5.000000
  0.500000  -1.000000  -5.000000
  0.500000  -0.500000  -5.000000
  0.500000  0.000000  -5.000000
  0.500000  0.500000  -5.000000
  0.500000  1.000000  -5.000000
  0.500000  1.500000  -5.000000
  0.500000  2.000000  -5.000000
  0.500000  2.500000  -5.000000
  0.500000  3.000000  -5.000000
  0.500000  3.500000  -5.000000
  0.500000  4.000000  -5.000000
  0.500000  4.500000  -5.000000
  0.500000  5.000000  -5.000000
  1.000000  -5.000000  -5.000000
  1.000000  -4.500000  -5.000000
  1.000000  -4.000000  -5.000000
  1.000000  -3.500000  -5.000000
  1.000000  -3.000000  -5.000000
  1.000000  -2.500000  -5.000000
  1.000000  -2.000000  -5.000000
  1.000000  -1.500000  -5.000000
  1.000000  -1.000000  -5.000000
  1.000000  -0.500000  -5.000000
  1.000000  0.000000  -5.000000
  1.000000  0.500000  -5.000000
  1.000000  1.000000  -5.000000
  1.000000  1.500000  -5.000000
  1.000000  2.000000  -5.000000
  1.000000  2.500000  -5.000000
  1.000000  3.000000  -5.000000
  1.000000  3.500000  -5.000000
  1.000000  4.000000  -5.000000
  1.000000  4.500000  -5.000000
  1.000000  5.000000  -5.000000
  1.500000  -5.000000  -5.000000
  1.500000  -4.500000  -5.000000
  1.500000  -4.000000  -5.000000
  1.500000  -3.500000  -5.000000
  1.500000  -3.000000  -5.000000
  1.500000  -2.500000  -5.000000
  1.500000  -2.000000  -5.000000
  1.500000  -1.500000  -5.000000
  1.500000  -1.000000  -5.000000
  1.500000  -0.500000  -5.000000
  1.500000  0.000000  -5.000000
  1.500000  0.500000  -5.000000
  1.500000  1.000000  -5.000000
  1.500000  1.500000  -5.000000
  1.500000  2.000000  -5.000000
  1.500000  2.500000  -5.000000
  1.500000  3.000000  -5.000000
  1.500000  3.500000  -5.000000
  1.500000  4.000000  -5.000000
  1.500000  4.500000  -5.000000
  1.500000  5.000000  -5.000000
  2.000000  -5.000000  -5.000000
  2.000000  -4.500000  -5.000000
  2.000000  -4.000000  -5.000000
  2.000000  -3.500000  -5.000000
[...]
CELL_DATA 48000
SCALARS Fluence double
LOOKUP_TABLE default
338.207000 
413.037000 
416.791000 
384.888000 
363.209000 
474.111000 
550.709000 
667.451000 
591.691000 
562.263000 
566.243000 
684.671000 
811.715000 
1022.290000 
803.030000 
878.709000 
748.992000 
948.064000 
1060.820000 
1213.310000 
1082.480000 
1215.800000 
1005.770000 
1241.420000 
1386.680000 
1596.740000 
1399.830000 
1424.270000 
1321.520000 
1585.730000 
1692.610000 
1914.830000 
1591.620000 
1810.140000 
1472.990000 
1571.370000 
2009.900000 
2396.620000 
2002.270000 
2026.220000 
1804.910000 
2008.460000 
2464.490000 
2697.010000 
2341.630000 
2620.630000 
2293.100000 
2469.350000 
2597.450000 
3024.000000 
2608.720000 
3002.880000 
2740.660000 
2944.320000 
3087.010000 
3416.040000 
2794.040000 
3422.610000 
2742.220000 
3149.000000 
3202.530000 
3642.610000 
2883.870000 
3494.800000 
2822.720000 
3130.560000 
3450.980000 
3775.600000 
3181.970000 
3777.900000 
3022.570000 
3339.950000 
3344.630000 
3939.730000 
2982.610000 
3763.690000 
3037.140000 
3374.610000 
3360.480000 
3799.700000 
3054.130000 
3757.660000 
2924.650000 
3283.570000 
3226.850000 
3403.540000 
2724.710000 
3568.240000 
2824.430000 
3155.500000 
3038.680000 
3148.130000 
2490.140000 
3284.000000 
2676.140000 
2709.850000 
2559.930000 
2810.350000 
2135.980000 
2866.780000 
2217.720000 
2310.280000 
2232.660000 
2208.210000 
1679.650000 
2263.810000 
1865.700000 
1823.070000 
1643.330000 
1796.070000 
1275.790000 
1835.270000 
1341.730000 
1423.490000 
1222.510000 
1225.840000 
937.298000 
1303.570000 
1006.010000 
1022.140000 
504.079000 
696.189000 
601.348000 
668.755000 
552.981000 
628.138000 
787.062000 
974.227000 
923.090000 
968.167000 
877.937000 
1046.310000 
1162.260000 
1383.130000 
1268.360000 
1426.690000 
1296.470000 
1419.960000 
1580.770000 
1886.340000 
1585.580000 
1849.170000 
1518.030000 
1778.370000 
1955.090000 
2307.670000 
2048.780000 
2306.590000 
1919.530000 
2305.410000 
2477.800000 
2940.870000 
2601.290000 
2879.330000 
2478.040000 
2727.800000 
3177.820000 
3406.430000 
3021.430000 
3319.890000 
2911.030000 
3381.140000 
3515.190000 
4076.040000 
3193.130000 
3748.120000 
3339.670000 
3577.020000 
4098.320000 
4667.100000 
3999.030000 
4562.790000 
3663.930000 
4405.400000 
4719.460000 
5065.510000 
4456.220000 
5282.480000 
4270.590000 
4732.660000 
4883.710000 
5479.590000 
4620.180000 
5606.810000 
4503.270000 
4954.150000 
5019.390000 
5480.920000 
4733.340000 
5558.620000 
4636.990000 
5372.370000 
5100.170000 
5860.840000 
4770.130000 
5665.220000 
4658.340000 
5276.960000 
5119.790000 
5509.580000 
4502.840000 
5756.530000 
4418.210000 
4865.470000 
4838.390000 
5372.530000 
4276.530000 
5414.540000 
4382.210000 
4749.340000 
4414.120000 
4840.910000 
3945.260000 
5107.300000 
3968.080000 
4378.670000 
4034.470000 
4220.240000 
3164.010000 
4215.760000 
3457.420000 
3749.970000 
3260.740000 
3377.870000 
2875.710000 
3737.630000 
2787.620000 
2883.950000 
2608.400000 
2620.670000 
2008.020000 
2932.910000 
2202.630000 
2187.380000 
1865.090000 
1849.340000 
1394.590000 
2068.680000 
1582.850000 
1621.470000 
775.976000 
936.822000 
866.671000 
960.901000 
769.589000 
931.476000 
1130.400000 
1355.120000 
1326.710000 
1324.290000 
1287.160000 
1503.650000 
1662.210000 
1901.630000 
1792.770000 
1926.390000 
1737.580000 
2011.620000 
2128.690000 
2626.750000 
2250.890000 
2443.370000 
2085.180000 
2500.440000 
2768.930000 
3157.770000 
2996.420000 
3057.660000 
2748.030000 
3171.560000 
3318.780000 
3889.950000 
3484.660000 
3806.540000 
3224.810000 
3850.860000 
4197.450000 
5008.430000 
4117.160000 
4693.760000 
4130.170000 
4880.790000 
4845.370000 
5804.410000 
4655.830000 
5571.990000 
4624.430000 
5491.390000 
5696.690000 
6503.600000 
5413.740000 
6555.860000 
5485.180000 
6176.320000 
6145.680000 
6946.740000 
6162.520000 
6896.900000 
6131.370000 
6867.560000 
6720.460000 
7606.190000 
6209.790000 
7773.800000 
6374.810000 
7155.600000 
6984.900000 
7754.670000 
6474.330000 
7939.940000 
6703.790000 
7681.570000 
7181.720000 
8034.170000 
6462.680000 
8386.490000 
6825.020000 
7870.390000 
7252.930000 
7837.790000 
6794.680000 
8120.850000 
6777.850000 
7648.910000 
7036.250000 
7607.820000 
5978.190000 
7911.650000 
6564.790000 
7172.320000 
6230.800000 
6921.340000 
5486.990000 
7211.020000 
5636.620000 
6021.700000 
5559.930000 
5732.250000 
4730.360000 
6268.110000 
4882.130000 
5285.820000 
4644.670000 
4903.470000 
3945.050000 
5359.380000 
4174.060000 
4356.810000 
3669.820000 
3854.040000 
3008.920000 
3979.390000 
3127.880000 
3353.060000 
2696.920000 
2810.260000 
1957.620000 
2987.660000 
2191.960000 
2294.580000 
1021.200000 
1267.210000 
1192.580000 
1168.910000 
981.797000 
1311.180000 
1558.400000 
1862.890000 
1738.590000 
1724.200000 
1540.510000 
1883.630000 
2226.590000 
2640.790000 
2464.090000 
2476.690000 
2212.750000 
2633.650000 
2970.570000 
3493.160000 
3216.550000 
3167.290000 
3048.270000 
3449.540000 
3817.630000 
4501.770000 
3905.070000 
4193.710000 
3725.890000 
4322.080000 
4589.100000 
5296.610000 
4651.250000 
5248.260000 
4736.540000 
5202.840000 
5426.240000 
6137.790000 
5840.890000 
6203.440000 
5447.900000 
6386.260000 
6704.370000 
7504.210000 
6865.930000 
7444.530000 
6783.010000 
7419.950000 
7543.550000 
8711.340000 
7698.410000 
8508.190000 
7511.790000 
8675.820000 
8700.270000 
9585.920000 
8530.210000 
9780.170000 
8216.220000 
9104.470000 
9466.550000 
10554.400000 
8917.370000 
10845.100000 
9059.730000 
10028.500000 
9438.730000 
10732.400000 
9304.190000 
10705.500000 
9169.960000 
10097.400000 
9828.470000 
10969.400000 
8972.890000 
11415.300000 
9105.020000 
10780.200000 
9941.520000 
10705.800000 
9168.660000 
11559.900000 
9480.380000 
10326.700000 
9256.090000 
10488.800000 
8368.410000 
11326.400000 
8704.830000 
9637.150000 
8596.930000 
9331.070000 
7333.980000 
9967.670000 
7994.970000 
8645.980000 
7434.150000 
7549.800000 
6263.460000 
8566.490000 
6911.590000 
7537.110000 
6183.130000 
6686.850000 
5440.560000 
7375.240000 
5717.320000 
6334.430000 
5083.230000 
5002.920000 
4080.290000 
5853.210000 
4520.180000 
4506.070000 
3548.670000 
3522.300000 
2924.540000 
4185.210000 
3102.600000 
3235.470000 
1236.560000 
1487.610000 
1482.190000 
1452.290000 
1328.680000 
1760.170000 
1887.320000 
2196.840000 
2174.930000 
2253.860000 
2140.690000 
2539.180000 
2670.960000 
3113.290000 
3171.260000 
3142.120000 
2995.400000 
3506.190000 
3725.500000 
4085.540000 
3882.970000 
4093.450000 
3877.000000 
4282.540000 
4515.440000 
5405.300000 
4807.410000 
5443.100000 
4720.170000 
5371.020000 
5893.190000 
6685.010000 
5837.750000 
6276.030000 
5776.970000 
6878.540000 
7215.830000 
8207.930000 
7319.450000 
8100.860000 
7285.910000 
8205.800000 
8565.710000 
9839.070000 
8683.360000 
9690.230000 
8581.970000 
9827.130000 
9802.770000 
11467.300000 
10435.000000 
11144.500000 
9848.730000 
11492.500000 
11524.900000 
12783.700000 
11071.200000 
13026.000000 
11174.200000 
12615.000000 
12090.000000 
13956.600000 
11860.000000 
13780.900000 
11938.000000 
13303.800000 
12842.000000 
13747.300000 
11745.900000 
14387.100000 
12328.100000 
13655.300000 
13134.300000 
14380.100000 
12621.000000 
14883.800000 
12594.400000 
13852.300000 
12626.100000 
14337.900000 
11745.100000 
14686.100000 
12347.900000 
13676.500000 
11890.700000 
13342.800000 
11166.200000 
13962.700000 
11749.600000 
12795.000000 
11232.600000 
11918.900000 
9742.270000 
12938.800000 
10657.000000 
11381.000000 
9791.660000 
10515.300000 
8604.890000 
11196.800000 
8820.770000 
9862.910000 
8294.860000 
8858.390000 
6958.920000 
9389.070000 
7348.850000 
7885.500000 
6481.220000 
6612.400000 
5126.940000 
7353.600000 
5660.360000 
6066.590000 
4485.410000 
4970.260000 
3621.660000 
5360.480000 
4095.460000 
3938.540000 
1332.800000 
1768.650000 
1728.530000 
1725.520000 
1616.040000 
2018.940000 
2348.670000 
2749.720000 
2562.770000 
2770.570000 
2569.860000 
2958.680000 
3207.110000 
3817.340000 
3606.180000 
3766.830000 
3531.990000 
4187.480000 
4466.900000 
5129.840000 
4690.770000 
4904.400000 
4591.880000 
5298.750000 
5608.710000 
6383.200000 
5826.280000 
6720.550000 
5817.850000 
6858.260000 
7029.980000 
8360.070000 
7935.690000 
8339.180000 
7675.460000 
8733.820000 
8720.380000 
10193.900000 
9087.130000 
10501.600000 
9341.560000 
10695.800000 
10126.400000 
11919.900000 
10597.000000 
12263.100000 
10853.300000 
12522.300000 
12056.800000 
13874.700000 
12059.300000 
14460.200000 
12437.200000 
14515.600000 
13661.100000 
15568.800000 
13730.700000 
16258.000000 
14285.900000 
16022.200000 
14906.800000 
16825.800000 
14947.500000 
17433.200000 
15473.700000 
17702.300000 
16122.800000 
17948.200000 
15668.700000 
19385.200000 
16237.300000 
17865.500000 
16533.400000 
18069.400000 
15467.500000 
19369.400000 
16190.300000 
18133.000000 
15994.100000 
18005.900000 
15109.700000 
19064.500000 
16187.100000 
18092.500000 
15488.200000 
17002.300000 
14351.300000 
18292.900000 
14904.100000 
16505.100000 
13875.600000 
15303.400000 
12391.300000 
16881.600000 
13514.200000 
15189.000000 
12850.000000 
13570.500000 
11015.900000 
15225.000000 
11994.600000 
12746.300000 
10328.400000 
11405.700000 
8914.470000 
12182.200000 
9812.380000 
10267.900000 
7799.080000 
8560.690000 
6663.980000 
9506.140000 
7485.380000 
7956.190000 
5746.860000 
5724.030000 
4787.600000 
6794.940000 
5452.580000 
5153.510000 
1722.110000 
2124.610000 
2016.020000 
1957.260000 
1872.470000 
2305.840000 
2805.040000 
3364.270000 
3102.700000 
3185.030000 
3212.070000 
3519.390000 
3749.410000 
4507.020000 
4375.870000 
4653.000000 
4202.360000 
5058.040000 
5161.900000 
6345.590000 
5871.680000 
6086.360000 
5609.250000 
6565.990000 
6843.030000 
7982.870000 
7477.890000 
7922.100000 
7252.380000 
8385.200000 
8641.630000 
10178.900000 
9233.770000 
9935.000000 
9136.770000 
10630.200000 
10457.200000 
12385.600000 
11363.700000 
12644.400000 
11484.100000 
13475.400000 
12627.900000 
14736.700000 
13455.800000 
15259.900000 
13473.500000 
16136.100000 
15100.800000 
17294.200000 
15135.000000 
17743.700000 
15443.900000 
18015.500000 
17632.100000 
19786.500000 
17187.900000 
20591.300000 
17609.800000 
19997.200000 
19048.300000 
21862.400000 
18637.800000 
22838.300000 
19250.600000 
22231.300000 
20229.500000 
22359.500000 
19085.100000 
24306.800000 
20338.100000 
22526.200000 
20448.200000 
22604.300000 
19209.300000 
23988.300000 
19921.500000 
22623.200000 
20358.500000 
22795.400000 
19393.000000 
23852.800000 
19947.200000 
22544.300000 
20258.700000 
21440.700000 
17913.900000 
23694.400000 
19355.700000 
21366.800000 
18411.200000 
18924.600000 
15881.100000 
21052.700000 
17302.100000 
18525.300000 
15682.200000 
16789.700000 
13861.700000 
18281.100000 
14899.100000 
16234.200000 
12870.300000 
13110.600000 
10752.600000 
15313.700000 
12208.400000 
12885.500000 
10575.300000 
10401.400000 
7996.430000 
11993.300000 
9067.360000 
9709.920000 
7062.890000 
7070.220000 
5287.990000 
8144.950000 
6356.880000 
6506.250000 
1933.710000 
2501.210000 
2416.000000 
2277.870000 
2307.150000 
2723.730000 
3001.200000 
3662.620000 
3695.780000 
3685.390000 
3411.370000 
4146.530000 
4521.350000 
5425.460000 
4930.930000 
5405.290000 
4862.880000 
5855.030000 
6114.300000 
7253.250000 
6778.970000 
7301.120000 
6790.800000 
7809.300000 
7877.990000 
9611.290000 
8797.530000 
9528.810000 
8577.570000 
10030.600000 
10181.300000 
11875.100000 
10806.500000 
12024.300000 
10901.000000 
12926.000000 
12763.700000 
15236.400000 
13693.700000 
15440.600000 
13631.400000 
15898.900000 
15722.500000 
17802.800000 
16468.800000 
18389.500000 
16350.200000 
18854.300000 
18231.200000 
20858.300000 
18474.400000 
21567.400000 
18891.900000 
22259.300000 
20498.700000 
23561.600000 
20875.500000 
24256.300000 
21718.100000 
24753.600000 
23425.400000 
25764.700000 
22293.900000 
26870.500000 
23975.100000 
26890.000000 
24602.100000 
27345.700000 
24214.100000 
29368.300000 
25416.700000 
27857.700000 
25573.400000 
28374.900000 
23780.700000 
30249.100000 
25448.300000 
27946.100000 
24172.900000 
27179.700000 
23600.800000 
29582.900000 
24772.400000 
27425.400000 
24160.100000 
26424.400000 
21911.900000 
28699.500000 
23685.600000 
25952.300000 
21649.400000 
23322.200000 
18998.200000 
25816.100000 
20936.800000 
22401.200000 
18953.200000 
20258.600000 
16788.500000 
22315.500000 
18530.300000 
19997.200000 
15491.800000 
16669.100000 
13041.300000 
18363.500000 
14779.700000 
15584.500000 
11860.600000 
12547.900000 
9555.900000 
14455.500000 
11194.800000 
11756.700000 
8208.320000 
8564.020000 
6691.970000 
9751.870000 
7838.310000 
8022.540000 
2177.640000 
2734.190000 
2792.690000 
2750.590000 
2629.610000 
3288.000000 
3599.650000 
4340.540000 
4172.110000 
4152.630000 
3898.420000 
4888.050000 
5148.860000 
5991.370000 
5519.140000 
5963.310000 
5637.700000 
6563.770000 
6890.540000 
8184.460000 
7452.490000 
8113.220000 
7453.780000 
8968.770000 
8967.090000 
10301.400000 
9815.500000 
10742.700000 
10167.700000 
12190.900000 
11683.800000 
13522.100000 
12953.200000 
14123.300000 
13165.400000 
15223.700000 
14766.900000 
16804.000000 
15987.200000 
17251.900000 
15886.200000 
18731.700000 
18044.100000 
20536.400000 
18735.200000 
21750.900000 
19192.100000 
22827.000000 
20991.800000 
24103.300000 
21390.300000 
25580.300000 
22384.300000 
26229.600000 
23610.400000 
27650.200000 
25187.200000 
29356.600000 
26004.600000 
29061.100000 
26512.700000 
30645.100000 
26662.800000 
32907.500000 
28527.100000 
32160.300000 
29152.900000 
32839.000000 
28454.800000 
35605.000000 
31036.500000 
34565.100000 
28904.400000 
33007.600000 
28468.000000 
36605.100000 
30836.500000 
34638.000000 
28907.100000 
32413.700000 
27309.300000 
35289.300000 
29882.100000 
33141.900000 
27797.700000 
30458.500000 
25632.000000 
33938.200000 
27783.000000 
31195.800000 
25963.700000 
27541.600000 
23196.900000 
30773.100000 
25632.800000 
28470.800000 
22363.200000 
23573.000000 
19669.600000 
26586.300000 
21739.100000 
23455.000000 
18128.600000 
18880.900000 
15543.300000 
21427.600000 
17602.600000 
18960.800000 
13864.000000 
14155.700000 
11280.100000 
16997.400000 
13217.800000 
13750.800000 
9918.770000 
9915.530000 
7985.490000 
12254.900000 
9096.050000 
9352.660000 
2445.460000 
2961.890000 
2971.000000 
2937.540000 
2904.850000 
3611.050000 
3762.690000 
4388.940000 
4559.760000 
4276.490000 
4261.990000 
5487.310000 
5622.320000 
6617.660000 
6366.870000 
6666.210000 
6349.480000 
7547.110000 
7519.870000 
8720.980000 
8429.560000 
9023.280000 
8395.390000 
10480.300000 
10035.500000 
11782.200000 
10984.400000 
12189.300000 
11518.700000 
13413.500000 
12863.000000 
14760.600000 
14080.200000 
15344.300000 
14314.400000 
16726.100000 
16011.100000 
18947.900000 
17724.800000 
20079.800000 
18190.900000 
21317.300000 
20023.700000 
23322.200000 
21102.800000 
23988.400000 
22203.200000 
25840.200000 
23867.200000 
27098.400000 
24688.600000 
28834.100000 
25499.100000 
29964.200000 
26597.700000 
30471.900000 
28147.800000 
32965.400000 
29851.200000 
33996.400000 
30267.300000 
35002.200000 
30233.100000 
36839.500000 
32272.500000 
37348.900000 
31945.000000 
37221.700000 
32953.600000 
39436.000000 
35015.700000 
40121.700000 
33905.900000 
38036.100000 
32446.900000 
40933.300000 
35291.300000 
39575.400000 
32585.500000 
36763.200000 
31240.300000 
41316.200000 
34696.100000 
38991.200000 
31517.400000 
34971.400000 
29838.900000 
39033.800000 
32526.300000 
36286.000000 
29392.800000 
31053.600000 
26699.100000 
35413.400000 
29405.500000 
31986.800000 
25435.200000 
26163.100000 
22342.500000 
30305.100000 
24907.400000 
26626.400000 
20735.000000 
21520.500000 
17514.100000 
25072.100000 
20351.200000 
21522.200000 
16021.900000 
15668.800000 
12880.900000 
18889.100000 
15455.200000 
15727.800000 
10809.500000 
10965.000000 
9048.270000 
13069.100000 
10610.500000 
10669.000000 
2544.080000 
3177.960000 
3165.670000 
3232.110000 
3004.630000 
3760.260000 
4070.660000 
5123.830000 
4915.530000 
4834.620000 
4691.270000 
5795.260000 
6004.270000 
7009.820000 
6927.760000 
7453.370000 
7191.420000 
8201.620000 
7896.910000 
9520.960000 
9118.690000 
9918.780000 
9083.220000 
11171.600000 
10764.900000 
13040.400000 
12084.400000 
13144.400000 
12528.600000 
14735.100000 
13719.500000 
16034.300000 
15514.600000 
16429.000000 
15684.900000 
18392.400000 
17200.100000 
20182.500000 
19513.300000 
21396.300000 
19924.300000 
23112.600000 
21292.200000 
24852.900000 
22736.800000 
26109.400000 
23823.000000 
28169.500000 
25164.300000 
29890.000000 
26736.200000 
31505.200000 
28534.000000 
33341.500000 
29313.500000 
33954.400000 
30558.000000 
37016.700000 
32065.900000 
38357.200000 
33544.800000 
37423.400000 
33820.400000 
40530.900000 
36419.700000 
42265.700000 
35480.800000 
40542.000000 
36026.000000 
44162.300000 
38922.700000 
44105.700000 
36611.300000 
40823.900000 
37210.600000 
45350.400000 
39670.400000 
45680.000000 
36861.000000 
40956.400000 
34765.400000 
45868.700000 
38506.600000 
43305.300000 
34021.800000 
38215.000000 
32229.600000 
42769.000000 
35987.300000 
39951.400000 
31136.600000 
33976.000000 
29079.800000 
38534.400000 
32345.200000 
35512.600000 
27635.500000 
28652.700000 
24341.700000 
33632.900000 
27936.200000 
30527.200000 
22719.700000 
23513.800000 
19117.400000 
27684.500000 
22163.000000 
24323.800000 
16960.600000 
17936.200000 
14238.400000 
21261.400000 
16798.500000 
17198.100000 
12341.200000 
11841.800000 
9563.150000 
14652.900000 
11583.300000 
11851.300000 
2676.410000 
3263.810000 
3425.100000 
3318.550000 
3086.610000 
3970.540000 
4293.170000 
5198.460000 
5104.110000 
5128.650000 
5367.620000 
6438.340000 
6188.290000 
7446.120000 
7248.790000 
7428.660000 
7539.770000 
8603.440000 
8271.210000 
9847.420000 
9769.760000 
10414.500000 
9912.990000 
11994.300000 
11235.500000 
13123.500000 
12790.900000 
13599.900000 
12935.000000 
15597.300000 
14419.100000 
17069.100000 
16401.300000 
18210.700000 
17276.600000 
20280.300000 
18198.600000 
21557.000000 
20110.700000 
22387.900000 
20856.600000 
24177.600000 
22484.400000 
25988.200000 
24313.400000 
27441.900000 
25432.400000 
30011.500000 
26502.800000 
30344.800000 
28386.100000 
32911.800000 
30116.700000 
35432.600000 
31347.600000 
36102.700000 
32843.000000 
38936.500000 
35198.800000 
40129.800000 
35263.700000 
39859.800000 
36773.200000 
43872.600000 
38521.800000 
44470.200000 
37325.900000 
41975.000000 
37231.400000 
46743.800000 
41696.200000 
48238.500000 
38500.000000 
43699.400000 
38172.800000 
48790.300000 
42811.500000 
48638.500000 
39337.000000 
42129.100000 
37420.500000 
48693.000000 
42015.000000 
47061.000000 
36550.500000 
40079.800000 
35038.200000 
46462.700000 
40227.100000 
43798.600000 
33426.500000 
35550.400000 
31436.500000 
41984.700000 
35314.700000 
39381.700000 
28446.600000 
30684.600000 
26006.400000 
35338.000000 
29785.400000 
32568.900000 
23808.200000 
25079.400000 
20864.300000 
29538.200000 
24197.200000 
25268.500000 
18862.100000 
18777.200000 
15516.500000 
22608.100000 
17952.300000 
19328.900000 
12916.100000 
12694.800000 
10616.800000 
15382.100000 
12415.200000 
12850.900000 
2697.050000 
3226.190000 
3372.860000 
3329.030000 
3247.190000 
4169.950000 
4239.610000 
5068.730000 
5037.390000 
5049.910000 
5044.540000 
6318.490000 
6296.450000 
7524.610000 
7528.430000 
7360.610000 
7360.020000 
8867.810000 
8699.430000 
10047.700000 
10380.800000 
10720.900000 
10356.000000 
12125.100000 
11033.600000 
12830.700000 
12513.500000 
14187.700000 
13255.500000 
15782.900000 
15079.600000 
17568.500000 
16609.100000 
18431.600000 
17292.400000 
20619.500000 
18362.400000 
21295.900000 
20847.700000 
22926.300000 
21651.500000 
25336.100000 
22394.600000 